ITEM: TIMESTEP
0
ITEM: NUMBER OF ATOMS
128
ITEM: BOX BOUNDS pp pp pp
-6.33052 6.33052
-6.33052 6.33052
-6.33052 6.33052
ITEM: ATOMS id type xs ys zs
1 1 0 0 0
2 1 0.125 0.125 0.125
3 1 0 0 0.25
9 1 0 0.25 0
11 1 0 0.25 0.25
33 1 0.25 0 0
35 1 0.25 0 0.25
41 1 0.25 0.25 0
43 1 0.25 0.25 0.25
34 1 0.375 0.125 0.125
65 1 0.5 0 0
66 1 0.625 0.125 0.125
67 1 0.5 0 0.25
73 1 0.5 0.25 0
75 1 0.5 0.25 0.25
97 1 0.75 0 0
98 1 0.875 0.125 0.125
99 1 0.75 0 0.25
105 1 0.75 0.25 0
107 1 0.75 0.25 0.25
10 1 0.125 0.375 0.125
17 1 0 0.5 0
18 1 0.125 0.625 0.125
19 1 0 0.5 0.25
49 1 0.25 0.5 0
51 1 0.25 0.5 0.25
42 1 0.375 0.375 0.125
50 1 0.375 0.625 0.125
74 1 0.625 0.375 0.125
81 1 0.5 0.5 0
82 1 0.625 0.625 0.125
83 1 0.5 0.5 0.25
106 1 0.875 0.375 0.125
113 1 0.75 0.5 0
114 1 0.875 0.625 0.125
115 1 0.75 0.5 0.25
25 1 0 0.75 0
26 1 0.125 0.875 0.125
27 1 0 0.75 0.25
57 1 0.25 0.75 0
59 1 0.25 0.75 0.25
58 1 0.375 0.875 0.125
89 1 0.5 0.75 0
90 1 0.625 0.875 0.125
91 1 0.5 0.75 0.25
121 1 0.75 0.75 0
122 1 0.875 0.875 0.125
123 1 0.75 0.75 0.25
4 1 0.125 0.125 0.375
5 1 0 0 0.5
6 1 0.125 0.125 0.625
13 1 0 0.25 0.5
37 1 0.25 0 0.5
45 1 0.25 0.25 0.5
36 1 0.375 0.125 0.375
38 1 0.375 0.125 0.625
68 1 0.625 0.125 0.375
69 1 0.5 0 0.5
70 1 0.625 0.125 0.625
77 1 0.5 0.25 0.5
100 1 0.875 0.125 0.375
101 1 0.75 0 0.5
102 1 0.875 0.125 0.625
109 1 0.75 0.25 0.5
12 1 0.125 0.375 0.375
14 1 0.125 0.375 0.625
20 1 0.125 0.625 0.375
21 1 0 0.5 0.5
22 1 0.125 0.625 0.625
53 1 0.25 0.5 0.5
44 1 0.375 0.375 0.375
46 1 0.375 0.375 0.625
52 1 0.375 0.625 0.375
54 1 0.375 0.625 0.625
76 1 0.625 0.375 0.375
78 1 0.625 0.375 0.625
84 1 0.625 0.625 0.375
85 1 0.5 0.5 0.5
86 1 0.625 0.625 0.625
108 1 0.875 0.375 0.375
110 1 0.875 0.375 0.625
116 1 0.875 0.625 0.375
117 1 0.75 0.5 0.5
118 1 0.875 0.625 0.625
28 1 0.125 0.875 0.375
29 1 0 0.75 0.5
30 1 0.125 0.875 0.625
61 1 0.25 0.75 0.5
60 1 0.375 0.875 0.375
62 1 0.375 0.875 0.625
92 1 0.625 0.875 0.375
93 1 0.5 0.75 0.5
94 1 0.625 0.875 0.625
124 1 0.875 0.875 0.375
125 1 0.75 0.75 0.5
126 1 0.875 0.875 0.625
7 1 0 0 0.75
8 1 0.125 0.125 0.875
15 1 0 0.25 0.75
39 1 0.25 0 0.75
47 1 0.25 0.25 0.75
40 1 0.375 0.125 0.875
71 1 0.5 0 0.75
72 1 0.625 0.125 0.875
79 1 0.5 0.25 0.75
103 1 0.75 0 0.75
104 1 0.875 0.125 0.875
111 1 0.75 0.25 0.75
16 1 0.125 0.375 0.875
23 1 0 0.5 0.75
24 1 0.125 0.625 0.875
55 1 0.25 0.5 0.75
48 1 0.375 0.375 0.875
56 1 0.375 0.625 0.875
80 1 0.625 0.375 0.875
87 1 0.5 0.5 0.75
88 1 0.625 0.625 0.875
112 1 0.875 0.375 0.875
119 1 0.75 0.5 0.75
120 1 0.875 0.625 0.875
31 1 0 0.75 0.75
32 1 0.125 0.875 0.875
63 1 0.25 0.75 0.75
64 1 0.375 0.875 0.875
95 1 0.5 0.75 0.75
96 1 0.625 0.875 0.875
127 1 0.75 0.75 0.75
128 1 0.875 0.875 0.875
ITEM: TIMESTEP
1000
ITEM: NUMBER OF ATOMS
128
ITEM: BOX BOUNDS pp pp pp
-6.35504 6.35504
-6.35504 6.35504
-6.35504 6.35504
ITEM: ATOMS id type xs ys zs
1 1 0.000220555 -0.000362841 -0.000241024
2 1 0.125003 0.125414 0.124942
3 1 -0.000338701 0.000106556 0.249991
9 1 -0.000280196 0.249974 -0.000274715
11 1 0.000554345 0.249904 0.249988
33 1 0.249597 2.76981e-05 0.000241901
35 1 0.249563 0.00022229 0.250345
41 1 0.249694 0.250325 -7.37838e-05
43 1 0.250139 0.250523 0.249896
34 1 0.37545 0.124681 0.125234
65 1 0.499895 -0.000201244 7.59492e-05
66 1 0.625339 0.124762 0.125014
67 1 0.499611 0.000373434 0.250212
73 1 0.499868 0.249953 2.09069e-05
75 1 0.500003 0.250124 0.249878
97 1 0.749748 0.000549696 -5.86029e-05
98 1 0.875051 0.124971 0.124901
99 1 0.749796 -0.000248022 0.250085
105 1 0.750259 0.250128 -0.000303189
107 1 0.750455 0.249919 0.250111
10 1 0.125011 0.37472 0.124783
17 1 0.000146535 0.49969 -0.000258056
18 1 0.12515 0.624835 0.124853
19 1 -8.86706e-05 0.499946 0.2503
49 1 0.249777 0.499768 -6.11775e-05
51 1 0.250069 0.50026 0.249487
42 1 0.375091 0.374579 0.125292
50 1 0.375179 0.624856 0.125081
74 1 0.625221 0.374914 0.124839
81 1 0.499979 0.500267 0.000107903
82 1 0.625382 0.62478 0.125306
83 1 0.500278 0.50011 0.249852
106 1 0.875277 0.375235 0.124933
113 1 0.749742 0.500224 -0.000405738
114 1 0.87521 0.624872 0.125368
115 1 0.750131 0.500027 0.24989
25 1 0.000101952 0.74995 -9.73519e-05
26 1 0.125031 0.874934 0.125064
27 1 -4.58327e-05 0.75007 0.250147
57 1 0.250127 0.750106 -0.000223419
59 1 0.250246 0.750433 0.250267
58 1 0.375234 0.874938 0.125146
89 1 0.50001 0.750168 0.00051841
90 1 0.625316 0.874914 0.125158
91 1 0.499755 0.75006 0.249725
121 1 0.750022 0.750216 -1.34403e-05
122 1 0.875516 0.874762 0.125406
123 1 0.75017 0.749864 0.250215
4 1 0.124346 0.124973 0.375173
5 1 1.44982e-05 0.000143078 0.500331
6 1 0.124907 0.125046 0.624642
13 1 3.99851e-05 0.24984 0.499858
37 1 0.249996 -0.000228304 0.500122
45 1 0.249603 0.249814 0.500319
36 1 0.374916 0.125311 0.374895
38 1 0.375025 0.124687 0.625075
68 1 0.624979 0.124772 0.375201
69 1 0.499875 2.50645e-05 0.499801
70 1 0.625083 0.125002 0.624892
77 1 0.49985 0.250007 0.499887
100 1 0.874608 0.125086 0.374947
101 1 0.749627 0.000121536 0.499672
102 1 0.87502 0.125075 0.625091
109 1 0.750056 0.249928 0.500445
12 1 0.124854 0.375208 0.374668
14 1 0.124807 0.374912 0.624826
20 1 0.125146 0.624918 0.375245
21 1 -0.000158042 0.500063 0.5006
22 1 0.125172 0.624833 0.624753
53 1 0.249626 0.500098 0.499786
44 1 0.375168 0.374878 0.374684
46 1 0.375102 0.374789 0.625202
52 1 0.374923 0.624907 0.374517
54 1 0.374491 0.625074 0.624464
76 1 0.62471 0.374819 0.374752
78 1 0.624616 0.374983 0.624843
84 1 0.625205 0.625054 0.375292
85 1 0.500037 0.50007 0.500132
86 1 0.624895 0.624943 0.625352
108 1 0.874631 0.375172 0.374834
110 1 0.874973 0.374989 0.625097
116 1 0.874689 0.624801 0.374706
117 1 0.749584 0.500121 0.499538
118 1 0.874736 0.625314 0.625106
28 1 0.125073 0.87536 0.375041
29 1 0.000324788 0.749758 0.499992
30 1 0.125437 0.874902 0.624408
61 1 0.25035 0.750012 0.49974
60 1 0.374965 0.875083 0.375391
62 1 0.375247 0.87466 0.625118
92 1 0.625718 0.87483 0.374976
93 1 0.50046 0.750252 0.499791
94 1 0.625393 0.87481 0.624872
124 1 0.875083 0.875118 0.374896
125 1 0.750268 0.750179 0.500078
126 1 0.875179 0.874919 0.625201
7 1 -0.000402874 -3.55913e-05 0.750244
8 1 0.124738 0.124741 0.874828
15 1 0.000264721 0.249776 0.749793
39 1 0.249971 0.000209714 0.750282
47 1 0.250627 0.250142 0.750147
40 1 0.374714 0.124864 0.874895
71 1 0.499785 0.000285829 0.750218
72 1 0.62503 0.124895 0.875271
79 1 0.500028 0.250205 0.749949
103 1 0.750214 -0.0004969 0.7496
104 1 0.874643 0.124688 0.874872
111 1 0.750251 0.249717 0.750208
16 1 0.12526 0.375187 0.875118
23 1 -0.000388533 0.500139 0.750414
24 1 0.124827 0.625151 0.874949
55 1 0.249778 0.500226 0.749968
48 1 0.374775 0.37487 0.875039
56 1 0.374895 0.624702 0.874711
80 1 0.624966 0.375538 0.87516
87 1 0.500105 0.50014 0.750324
88 1 0.625029 0.625038 0.875194
112 1 0.874912 0.374846 0.874984
119 1 0.749579 0.500112 0.750057
120 1 0.875279 0.624845 0.875042
31 1 -0.00014979 0.749812 0.750059
32 1 0.124789 0.874838 0.875201
63 1 0.250072 0.750096 0.750015
64 1 0.374979 0.875216 0.875069
95 1 0.500392 0.750249 0.750211
96 1 0.62487 0.875174 0.874586
127 1 0.749567 0.74982 0.749911
128 1 0.875286 0.874933 0.874762
ITEM: TIMESTEP
2000
ITEM: NUMBER OF ATOMS
128
ITEM: BOX BOUNDS pp pp pp
-6.41895 6.41895
-6.41895 6.41895
-6.41895 6.41895
ITEM: ATOMS id type xs ys zs
1 1 -0.000184775 -3.90671e-05 -3.00868e-05
2 1 0.124526 0.124681 0.125274
3 1 0.00013655 -7.21027e-05 0.250414
9 1 0.000536561 0.249875 -0.000718327
11 1 0.000254675 0.250261 0.250049
33 1 0.250079 -0.000248986 0.000205795
35 1 0.24959 0.000111795 0.249926
41 1 0.24996 0.249362 1.85567e-05
43 1 0.249871 0.249964 0.25015
34 1 0.375132 0.125006 0.124934
65 1 0.499739 -0.000150758 0.000392797
66 1 0.625242 0.124855 0.125088
67 1 0.499493 -0.000557763 0.249476
73 1 0.499905 0.249788 -0.000180441
75 1 0.500265 0.249729 0.250242
97 1 0.749822 0.000233279 -0.000441379
98 1 0.874959 0.125025 0.125019
99 1 0.749657 0.000102167 0.249779
105 1 0.750093 0.250268 0.000291539
107 1 0.750334 0.249597 0.250286
10 1 0.125228 0.37505 0.125586
17 1 -0.000505302 0.500184 0.000510044
18 1 0.124902 0.62533 0.125507
19 1 6.46886e-05 0.500206 0.250286
49 1 0.249736 0.50029 -0.000500052
51 1 0.249673 0.500331 0.25014
42 1 0.375168 0.375257 0.125119
50 1 0.374785 0.624711 0.124601
74 1 0.625631 0.374903 0.125173
81 1 0.500398 0.499727 -2.63922e-06
82 1 0.624887 0.625129 0.125229
83 1 0.499676 0.499868 0.250494
106 1 0.874944 0.374653 0.125282
113 1 0.74998 0.500279 -5.72549e-05
114 1 0.874743 0.624858 0.125077
115 1 0.750138 0.499849 0.250144
25 1 -0.000157441 0.749895 -0.000181461
26 1 0.124332 0.874988 0.125144
27 1 -0.000120259 0.750181 0.249856
57 1 0.250034 0.749991 4.48216e-05
59 1 0.249992 0.750022 0.249347
58 1 0.374573 0.874768 0.125241
89 1 0.500235 0.750027 7.04565e-05
90 1 0.625157 0.87515 0.124443
91 1 0.500281 0.74986 0.250007
121 1 0.749781 0.75028 -5.07176e-05
122 1 0.874602 0.875432 0.124572
123 1 0.749861 0.750074 0.25
4 1 0.124843 0.125023 0.374694
5 1 -2.12486e-06 0.000154651 0.499584
6 1 0.125342 0.124755 0.625273
13 1 -0.00028698 0.249997 0.500406
37 1 0.249644 5.25162e-06 0.500043
45 1 0.249927 0.249767 0.499972
36 1 0.37512 0.124951 0.375317
38 1 0.375754 0.125284 0.625248
68 1 0.624825 0.125321 0.374547
69 1 0.499917 -5.60474e-05 0.499728
70 1 0.625257 0.1245 0.6252
77 1 0.500296 0.249934 0.500109
100 1 0.874202 0.125061 0.374544
101 1 0.750549 -2.29942e-05 0.499711
102 1 0.875203 0.124878 0.624768
109 1 0.749879 0.250218 0.500006
12 1 0.124736 0.375086 0.37516
14 1 0.125588 0.375165 0.624756
20 1 0.124687 0.625115 0.374881
21 1 -0.000601717 0.500219 0.500172
22 1 0.1248 0.624852 0.624802
53 1 0.24969 0.499903 0.50001
44 1 0.375059 0.375063 0.375353
46 1 0.375249 0.374602 0.625052
52 1 0.374652 0.625115 0.374926
54 1 0.374714 0.624419 0.624792
76 1 0.625409 0.374754 0.375098
78 1 0.625298 0.375291 0.624888
84 1 0.624826 0.624525 0.37492
85 1 0.499347 0.499688 0.499877
86 1 0.625012 0.624894 0.625025
108 1 0.875034 0.375027 0.374806
110 1 0.875161 0.375211 0.624811
116 1 0.875231 0.624938 0.375084
117 1 0.74995 0.500012 0.500291
118 1 0.875294 0.624776 0.625064
28 1 0.124695 0.874847 0.375067
29 1 0.000410906 0.750315 0.500114
30 1 0.125239 0.874887 0.625365
61 1 0.250439 0.749656 0.499475
60 1 0.375134 0.875101 0.37501
62 1 0.37494 0.875221 0.62474
92 1 0.624746 0.875085 0.374659
93 1 0.50025 0.749562 0.499917
94 1 0.625646 0.875121 0.624859
124 1 0.874845 0.874721 0.375039
125 1 0.750106 0.750254 0.499887
126 1 0.875761 0.874747 0.624729
7 1 0.000191625 7.15911e-05 0.749475
8 1 0.125044 0.124819 0.875004
15 1 0.000412055 0.250256 0.749979
39 1 0.250272 8.51176e-05 0.750217
47 1 0.249939 0.250123 0.750185
40 1 0.375087 0.124847 0.875082
71 1 0.500138 -0.000373368 0.750461
72 1 0.624959 0.125389 0.874721
79 1 0.50081 0.250177 0.750244
103 1 0.749736 0.000424489 0.750063
104 1 0.875004 0.124903 0.87531
111 1 0.75062 0.250077 0.749846
16 1 0.125337 0.37511 0.875092
23 1 -0.000409207 0.500049 0.750229
24 1 0.124924 0.625008 0.875125
55 1 0.249831 0.499875 0.749853
48 1 0.374995 0.375097 0.874916
56 1 0.374862 0.625638 0.874752
80 1 0.625295 0.374898 0.874715
87 1 0.500099 0.500341 0.750097
88 1 0.624587 0.625728 0.875049
112 1 0.875048 0.375116 0.875623
119 1 0.74976 0.499847 0.750066
120 1 0.874777 0.624943 0.87514
31 1 -0.000185629 0.750073 0.750235
32 1 0.124689 0.875309 0.8744
63 1 0.250131 0.750035 0.750058
64 1 0.374479 0.874884 0.875263
95 1 0.500145 0.750144 0.749864
96 1 0.625078 0.875125 0.874758
127 1 0.750154 0.750224 0.750209
128 1 0.874951 0.874734 0.874931
ITEM: TIMESTEP
3000
ITEM: NUMBER OF ATOMS
128
ITEM: BOX BOUNDS pp pp pp
-6.49582 6.49582
-6.49582 6.49582
-6.49582 6.49582
ITEM: ATOMS id type xs ys zs
1 1 1.81774e-05 0.000222519 0.000110055
2 1 0.125191 0.125024 0.124694
3 1 0.000539847 2.72934e-05 0.249724
9 1 -0.000228562 0.249864 -2.47389e-05
11 1 -0.000160934 0.249708 0.250025
33 1 0.249831 -0.000176542 -7.83255e-05
35 1 0.250713 5.85978e-05 0.249931
41 1 0.249988 0.24996 8.34389e-05
43 1 0.250146 0.249917 0.249953
34 1 0.37518 0.125063 0.124885
65 1 0.500243 -0.00014251 -6.6447e-05
66 1 0.625155 0.125149 0.125025
67 1 0.500207 -9.02887e-05 0.250083
73 1 0.49977 0.24995 -0.000336388
75 1 0.499991 0.250045 0.249999
97 1 0.750181 -0.000374803 0.00011067
98 1 0.875157 0.124908 0.125356
99 1 0.74996 0.000212216 0.250319
105 1 0.749728 0.250033 -6.6837e-05
107 1 0.750219 0.25005 0.249957
10 1 0.124796 0.375041 0.124836
17 1 0.000159026 0.499835 -3.64849e-05
18 1 0.124881 0.625143 0.124737
19 1 9.63163e-05 0.500057 0.249992
49 1 0.250083 0.500212 -0.000171778
51 1 0.250038 0.500356 0.250106
42 1 0.375345 0.374752 0.125185
50 1 0.375024 0.624756 0.125268
74 1 0.624893 0.374796 0.124972
81 1 0.499962 0.500136 -0.000112537
82 1 0.625518 0.625176 0.124989
83 1 0.499912 0.5003 0.249901
106 1 0.875026 0.374903 0.12527
113 1 0.749697 0.500069 -0.000464362
114 1 0.875224 0.624885 0.12508
115 1 0.749722 0.499943 0.249875
25 1 0.00056483 0.750019 4.56387e-07
26 1 0.125344 0.874544 0.125019
27 1 0.000302923 0.750199 0.250128
57 1 0.250519 0.750068 8.65313e-05
59 1 0.250308 0.750306 0.24999
58 1 0.375275 0.875298 0.125008
89 1 0.500097 0.749967 0.000223972
90 1 0.625335 0.875124 0.124962
91 1 0.499999 0.750095 0.249987
121 1 0.750088 0.750052 5.1138e-05
122 1 0.875235 0.874874 0.125142
123 1 0.750165 0.750062 0.249978
4 1 0.125185 0.124924 0.375079
5 1 -0.000180928 0.000288731 0.500058
6 1 0.12478 0.124811 0.624742
13 1 -4.58124e-06 0.250207 0.499855
37 1 0.249874 -4.68257e-05 0.50008
45 1 0.249866 0.250119 0.499565
36 1 0.374507 0.125127 0.374995
38 1 0.374835 0.125266 0.624942
68 1 0.625191 0.125503 0.374858
69 1 0.499989 0.000317769 0.49988
70 1 0.624706 0.124877 0.624945
77 1 0.49975 0.25006 0.500409
100 1 0.874879 0.124812 0.375139
101 1 0.749676 -3.11504e-06 0.500474
102 1 0.874681 0.125005 0.625216
109 1 0.749879 0.250471 0.500201
12 1 0.125234 0.375145 0.375203
14 1 0.125055 0.37513 0.624977
20 1 0.125193 0.624504 0.374905
21 1 -0.000154999 0.499859 0.499735
22 1 0.125299 0.62522 0.624894
53 1 0.249527 0.499772 0.500044
44 1 0.37515 0.375384 0.374775
46 1 0.375112 0.37522 0.624749
52 1 0.37505 0.624889 0.375401
54 1 0.375041 0.625211 0.625368
76 1 0.625035 0.37498 0.374887
78 1 0.624861 0.374852 0.624623
84 1 0.62512 0.624953 0.375061
85 1 0.500127 0.500082 0.500038
86 1 0.624979 0.624781 0.624522
108 1 0.875157 0.374947 0.374635
110 1 0.874919 0.37445 0.624828
116 1 0.875217 0.624929 0.374756
117 1 0.750071 0.500022 0.500158
118 1 0.875096 0.624944 0.624873
28 1 0.124628 0.874891 0.375035
29 1 -5.46777e-05 0.749982 0.500137
30 1 0.125243 0.874724 0.625195
61 1 0.24995 0.750267 0.499654
60 1 0.374937 0.875078 0.374901
62 1 0.374866 0.87463 0.625398
92 1 0.624929 0.875295 0.375189
93 1 0.500174 0.750158 0.500165
94 1 0.624538 0.8751 0.625375
124 1 0.875153 0.874961 0.374788
125 1 0.749906 0.749861 0.50001
126 1 0.874936 0.874879 0.624984
7 1 -9.50824e-05 0.000133532 0.750182
8 1 0.125073 0.124834 0.875004
15 1 -0.000394319 0.250152 0.750033
39 1 0.249464 0.000166408 0.750046
47 1 0.249666 0.250178 0.749859
40 1 0.374843 0.124744 0.874848
71 1 0.499664 0.000190312 0.75004
72 1 0.624763 0.125118 0.875328
79 1 0.499722 0.249809 0.750139
103 1 0.749632 9.17884e-05 0.750444
104 1 0.874756 0.124531 0.875215
111 1 0.749695 0.250169 0.749813
16 1 0.124665 0.375224 0.874844
23 1 2.50571e-05 0.499834 0.749519
24 1 0.124939 0.625117 0.875136
55 1 0.250114 0.499828 0.750067
48 1 0.374849 0.375142 0.8747
56 1 0.374913 0.624975 0.874605
80 1 0.62468 0.374525 0.875249
87 1 0.50003 0.500189 0.750129
88 1 0.625249 0.624301 0.875082
112 1 0.874815 0.374877 0.874538
119 1 0.750081 0.499952 0.749914
120 1 0.875095 0.625061 0.874815
31 1 -0.000130413 0.749754 0.749925
32 1 0.125312 0.874935 0.875182
63 1 0.249978 0.750195 0.750024
64 1 0.375325 0.874928 0.874861
95 1 0.499765 0.74988 0.750348
96 1 0.625102 0.875142 0.875288
127 1 0.750201 0.749805 0.750285
128 1 0.874854 0.875004 0.875157
ITEM: TIMESTEP
4000
ITEM: NUMBER OF ATOMS
128
ITEM: BOX BOUNDS pp pp pp
-6.55532 6.55532
-6.55532 6.55532
-6.55532 6.55532
ITEM: ATOMS id type xs ys zs
1 1 -0.000116461 2.24104e-05 0.000191462
2 1 0.124662 0.125154 0.124838
3 1 8.2331e-05 3.50197e-05 0.250513
9 1 4.0771e-05 0.250438 -0.000319674
11 1 -3.79432e-05 0.250141 0.250144
33 1 0.250334 -7.13626e-05 3.60021e-05
35 1 0.249887 -8.5787e-05 0.249528
41 1 0.250149 0.25003 0.000382072
43 1 0.250069 0.24979 0.249922
34 1 0.374918 0.125201 0.124575
65 1 0.500046 -0.000330815 0.000241192
66 1 0.625258 0.125011 0.125006
67 1 0.500153 -0.00013898 0.249639
73 1 0.499515 0.249726 -1.10925e-07
75 1 0.500056 0.249845 0.249966
97 1 0.750215 -4.88558e-05 -0.000131204
98 1 0.875078 0.124807 0.124939
99 1 0.749919 -0.000109125 0.250086
105 1 0.750228 0.250295 0.000251058
107 1 0.750062 0.250139 0.250108
10 1 0.124842 0.374908 0.124831
17 1 -0.000373872 0.500154 0.000509796
18 1 0.12478 0.624947 0.125119
19 1 -0.000256594 0.499936 0.249781
49 1 0.249827 0.49996 0.000238654
51 1 0.249615 0.499651 0.250029
42 1 0.374853 0.375277 0.125099
50 1 0.374556 0.624555 0.124862
74 1 0.624868 0.374971 0.124935
81 1 0.499925 0.499934 0.000325399
82 1 0.624653 0.625146 0.124877
83 1 0.499594 0.500272 0.250092
106 1 0.874864 0.374862 0.124919
113 1 0.749693 0.500481 -0.000282747
114 1 0.874631 0.624915 0.124674
115 1 0.749548 0.500285 0.249637
25 1 0.000213126 0.750162 -0.000235592
26 1 0.124705 0.874743 0.124512
27 1 -0.000266701 0.750096 0.249882
57 1 0.250047 0.750348 0.000325929
59 1 0.249985 0.749902 0.250142
58 1 0.374776 0.874946 0.124883
89 1 0.499512 0.750113 0.000381761
90 1 0.625042 0.875088 0.12473
91 1 0.500072 0.750065 0.249975
121 1 0.750118 0.749709 -4.3017e-05
122 1 0.87505 0.875179 0.124937
123 1 0.749797 0.750101 0.250089
4 1 0.125252 0.125055 0.375265
5 1 -0.000184604 0.000240718 0.499897
6 1 0.125398 0.124688 0.625265
13 1 -7.16983e-05 0.249968 0.500307
37 1 0.249523 1.48647e-05 0.499773
45 1 0.250302 0.25005 0.499796
36 1 0.375175 0.124736 0.375018
38 1 0.375218 0.125186 0.624887
68 1 0.625365 0.125397 0.375078
69 1 0.500058 -2.05015e-05 0.499847
70 1 0.624925 0.124537 0.624809
77 1 0.500314 0.249938 0.499957
100 1 0.874985 0.124827 0.375091
101 1 0.750203 -0.000143052 0.50026
102 1 0.875034 0.12467 0.624947
109 1 0.750132 0.250464 0.500446
12 1 0.124902 0.374945 0.375279
14 1 0.125843 0.375214 0.62511
20 1 0.124765 0.624675 0.375321
21 1 -0.000131302 0.499904 0.500231
22 1 0.125479 0.625118 0.625171
53 1 0.250372 0.499903 0.500261
44 1 0.375381 0.374823 0.375171
46 1 0.375815 0.374796 0.625499
52 1 0.374497 0.624968 0.375172
54 1 0.375127 0.624976 0.625278
76 1 0.625217 0.374934 0.374623
78 1 0.624723 0.375034 0.624955
84 1 0.624873 0.624737 0.374731
85 1 0.49996 0.49995 0.50027
86 1 0.625229 0.625056 0.624903
108 1 0.875325 0.374975 0.374864
110 1 0.875607 0.374914 0.625243
116 1 0.874853 0.624836 0.374911
117 1 0.750126 0.500282 0.500246
118 1 0.875091 0.625272 0.624892
28 1 0.124867 0.874645 0.375006
29 1 -9.14011e-05 0.750079 0.499623
30 1 0.12516 0.874555 0.625239
61 1 0.250029 0.750128 0.499631
60 1 0.374985 0.874962 0.37495
62 1 0.374811 0.874988 0.624627
92 1 0.62464 0.87532 0.374652
93 1 0.499812 0.749761 0.499805
94 1 0.624766 0.87479 0.624933
124 1 0.87469 0.874619 0.375035
125 1 0.74952 0.74991 0.499837
126 1 0.874926 0.87463 0.625152
7 1 -0.000358201 0.000578951 0.749677
8 1 0.12502 0.125011 0.875105
15 1 7.51283e-05 0.250337 0.750205
39 1 0.250102 0.000427303 0.74935
47 1 0.249716 0.250101 0.750056
40 1 0.375088 0.124797 0.874538
71 1 0.500072 -0.00045592 0.75017
72 1 0.625074 0.125125 0.875126
79 1 0.500129 0.249804 0.749972
103 1 0.749998 0.000147217 0.749987
104 1 0.874959 0.124865 0.875252
111 1 0.750471 0.250308 0.749756
16 1 0.125216 0.375222 0.87526
23 1 6.6229e-05 0.500224 0.749979
24 1 0.125007 0.62507 0.875074
55 1 0.250105 0.499795 0.749988
48 1 0.375218 0.374906 0.875304
56 1 0.375255 0.62524 0.875249
80 1 0.625063 0.37448 0.874954
87 1 0.500299 0.500414 0.750467
88 1 0.624928 0.625096 0.875058
112 1 0.875105 0.375111 0.875362
119 1 0.749758 0.500242 0.750078
120 1 0.874963 0.625217 0.87452
31 1 0.000209017 0.750072 0.749987
32 1 0.124769 0.875164 0.87468
63 1 0.249894 0.749882 0.75008
64 1 0.375247 0.875038 0.875138
95 1 0.500198 0.750045 0.749603
96 1 0.624903 0.874836 0.874833
127 1 0.750202 0.749917 0.749873
128 1 0.875264 0.875121 0.874917
ITEM: TIMESTEP
5000
ITEM: NUMBER OF ATOMS
128
ITEM: BOX BOUNDS pp pp pp
-6.57928 6.57928
-6.57928 6.57928
-6.57928 6.57928
ITEM: ATOMS id type xs ys zs
1 1 -0.000240156 -0.00014759 -8.15507e-05
2 1 0.124688 0.124781 0.125006
3 1 -0.000636716 0.000293127 0.250167
9 1 0.000366761 0.249722 -1.69845e-05
11 1 -0.0002646 0.250131 0.250176
33 1 0.249282 7.81787e-05 0.000173651
35 1 0.249737 -9.71015e-05 0.250439
41 1 0.249861 0.249542 0.000120208
43 1 0.250214 0.250088 0.250508
34 1 0.374961 0.124658 0.125132
65 1 0.499594 -0.000148289 0.000120192
66 1 0.625105 0.124843 0.125182
67 1 0.499509 -0.00020665 0.250063
73 1 0.500237 0.249935 2.54292e-05
75 1 0.500191 0.249952 0.249503
97 1 0.749747 -0.000148034 -0.000285284
98 1 0.875229 0.125103 0.125181
99 1 0.750003 -0.000259064 0.249926
105 1 0.750331 0.250047 -0.000324685
107 1 0.750399 0.250058 0.249785
10 1 0.124772 0.375336 0.125125
17 1 0.000209923 0.499868 -2.60053e-05
18 1 0.124706 0.624747 0.125173
19 1 -6.68261e-05 0.49994 0.250217
49 1 0.249954 0.500225 8.3177e-05
51 1 0.24983 0.500411 0.249944
42 1 0.375446 0.374698 0.124834
50 1 0.37508 0.625128 0.125093
74 1 0.625611 0.374776 0.125104
81 1 0.499636 0.500263 4.55986e-05
82 1 0.625133 0.624494 0.125513
83 1 0.500207 0.499724 0.250027
106 1 0.87527 0.374852 0.125419
113 1 0.750088 0.500191 0.00016552
114 1 0.875288 0.625092 0.125108
115 1 0.749588 0.50018 0.25039
25 1 -0.000357543 0.749934 0.000437147
26 1 0.124918 0.875001 0.124928
27 1 4.52708e-06 0.749993 0.250323
57 1 0.249801 0.750532 0.000320458
59 1 0.249757 0.75029 0.250027
58 1 0.374697 0.874708 0.125309
89 1 0.500261 0.7504 -3.9108e-05
90 1 0.625323 0.875298 0.125105
91 1 0.500077 0.750329 0.249831
121 1 0.749579 0.750176 -0.000398982
122 1 0.875047 0.875078 0.124857
123 1 0.750101 0.749902 0.249905
4 1 0.124458 0.124701 0.37539
5 1 -0.000380143 -0.000141304 0.500306
6 1 0.125176 0.125359 0.625037
13 1 -0.000145726 0.250171 0.499963
37 1 0.250261 0.000265082 0.4997
45 1 0.24987 0.249992 0.500234
36 1 0.374685 0.125464 0.374916
38 1 0.375418 0.12456 0.624983
68 1 0.624852 0.125157 0.374848
69 1 0.500374 -0.000111615 0.499962
70 1 0.625334 0.124848 0.624967
77 1 0.500655 0.249536 0.500348
100 1 0.874707 0.125201 0.374643
101 1 0.750044 -1.71024e-05 0.499407
102 1 0.875044 0.124783 0.624586
109 1 0.750358 0.249862 0.499979
12 1 0.124953 0.375373 0.374879
14 1 0.125082 0.3751 0.624704
20 1 0.124787 0.625713 0.37486
21 1 0.000113054 0.499823 0.500235
22 1 0.124974 0.624856 0.625311
53 1 0.249927 0.499682 0.499749
44 1 0.374442 0.37472 0.375176
46 1 0.375128 0.374735 0.624731
52 1 0.374809 0.62454 0.3748
54 1 0.374974 0.625067 0.62475
76 1 0.625127 0.374893 0.374979
78 1 0.625376 0.374967 0.625037
84 1 0.624969 0.624822 0.374945
85 1 0.499823 0.499936 0.500157
86 1 0.624857 0.625196 0.624984
108 1 0.874918 0.375039 0.375155
110 1 0.874473 0.375484 0.625069
116 1 0.875031 0.62519 0.375072
117 1 0.749388 0.500396 0.499757
118 1 0.874943 0.625141 0.625014
28 1 0.124667 0.874823 0.375331
29 1 0.000400139 0.74969 0.49985
30 1 0.125632 0.87484 0.624581
61 1 0.249749 0.750141 0.499652
60 1 0.375011 0.874657 0.374737
62 1 0.375185 0.874916 0.625082
92 1 0.625314 0.874858 0.374506
93 1 0.500066 0.750105 0.499591
94 1 0.625126 0.874968 0.624594
124 1 0.874864 0.875057 0.375309
125 1 0.750336 0.749616 0.500378
126 1 0.875601 0.874779 0.62484
7 1 -1.83483e-05 -0.000272197 0.749964
8 1 0.124616 0.12507 0.874722
15 1 0.000351623 0.250163 0.749773
39 1 0.249711 -0.000142288 0.750073
47 1 0.250788 0.249837 0.749722
40 1 0.375036 0.124656 0.875216
71 1 0.499976 0.000183748 0.750239
72 1 0.625354 0.124677 0.874833
79 1 0.500511 0.250301 0.750253
103 1 0.750225 0.0001021 0.74958
104 1 0.875243 0.124813 0.874682
111 1 0.75025 0.250085 0.750036
16 1 0.125062 0.375184 0.874907
23 1 -0.000468752 0.499707 0.750654
24 1 0.124825 0.625403 0.874856
55 1 0.249785 0.500269 0.750125
48 1 0.375195 0.374838 0.875171
56 1 0.374903 0.625164 0.874668
80 1 0.624576 0.375463 0.875003
87 1 0.500083 0.50012 0.749765
88 1 0.624915 0.625127 0.875018
112 1 0.875166 0.375016 0.875129
119 1 0.750187 0.500416 0.74996
120 1 0.874321 0.625181 0.875335
31 1 0.000257684 0.749926 0.749855
32 1 0.125003 0.874688 0.874817
63 1 0.250136 0.75001 0.749787
64 1 0.374875 0.875018 0.875227
95 1 0.499826 0.750049 0.749998
96 1 0.625349 0.875515 0.875085
127 1 0.750185 0.749725 0.750008
128 1 0.874748 0.875166 0.874836
ITEM: TIMESTEP
6000
ITEM: NUMBER OF ATOMS
128
ITEM: BOX BOUNDS pp pp pp
-6.56505 6.56505
-6.56505 6.56505
-6.56505 6.56505
ITEM: ATOMS id type xs ys zs
1 1 0.000122503 0.000213871 -5.95532e-05
2 1 0.124889 0.124511 0.125299
3 1 -0.000346423 0.000371041 0.250244
9 1 0.000195989 0.249943 0.00038417
11 1 -0.000844693 0.250213 0.249742
33 1 0.249783 -0.000134898 -0.000193561
35 1 0.2502 -0.000259837 0.249944
41 1 0.249738 0.25023 -0.00035072
43 1 0.249791 0.249736 0.250337
34 1 0.37459 0.125432 0.125026
65 1 0.500157 -8.82164e-06 -2.29324e-06
66 1 0.624617 0.125107 0.124854
67 1 0.500759 -0.000147549 0.250131
73 1 0.500054 0.250421 7.33916e-05
75 1 0.499959 0.249978 0.249951
97 1 0.750356 -0.000283918 -0.000100918
98 1 0.875084 0.125083 0.125135
99 1 0.750547 -6.37453e-05 0.249782
105 1 0.750029 0.249577 8.64567e-05
107 1 0.749737 0.250102 0.249923
10 1 0.124958 0.375126 0.124812
17 1 0.000371318 0.500024 -8.31956e-05
18 1 0.124848 0.62498 0.125099
19 1 3.77437e-05 0.500355 0.249868
49 1 0.250237 0.500033 0.00020812
51 1 0.249754 0.499753 0.250052
42 1 0.374763 0.374924 0.124961
50 1 0.375239 0.625299 0.12512
74 1 0.624783 0.375137 0.12525
81 1 0.500303 0.499845 -0.000109811
82 1 0.625226 0.624987 0.125014
83 1 0.500057 0.50018 0.249748
106 1 0.875362 0.374973 0.124947
113 1 0.749936 0.499839 0.000121332
114 1 0.874714 0.625111 0.124593
115 1 0.749743 0.500112 0.250036
25 1 -0.000120074 0.750248 -0.000237473
26 1 0.124637 0.874942 0.124987
27 1 0.000140056 0.74971 0.25002
57 1 0.249624 0.750388 0.00017999
59 1 0.250252 0.749945 0.250065
58 1 0.374989 0.875137 0.125234
89 1 0.499866 0.750061 -0.000119757
90 1 0.624889 0.874996 0.125148
91 1 0.500341 0.750024 0.250091
121 1 0.750206 0.750151 -1.42559e-05
122 1 0.874745 0.874716 0.125245
123 1 0.749919 0.750141 0.250417
4 1 0.12493 0.125166 0.375495
5 1 0.000171499 -0.000207586 0.499903
6 1 0.124773 0.125036 0.624987
13 1 -0.000298721 0.250443 0.499695
37 1 0.250128 0.000362361 0.499724
45 1 0.25037 0.250187 0.500205
36 1 0.375234 0.124649 0.374245
38 1 0.374917 0.125231 0.624933
68 1 0.625252 0.124416 0.375011
69 1 0.500293 -4.07213e-06 0.500372
70 1 0.625367 0.125016 0.624916
77 1 0.499976 0.249853 0.49992
100 1 0.875462 0.124588 0.375091
101 1 0.75011 0.000194608 0.499942
102 1 0.874845 0.124711 0.624837
109 1 0.749485 0.249804 0.499501
12 1 0.125274 0.374693 0.375073
14 1 0.124878 0.37467 0.624884
20 1 0.125297 0.625244 0.374947
21 1 0.000286954 0.500351 0.499603
22 1 0.125391 0.625171 0.625356
53 1 0.249892 0.500142 0.499641
44 1 0.374962 0.374899 0.374952
46 1 0.374797 0.375206 0.624912
52 1 0.375072 0.625201 0.374897
54 1 0.375567 0.625037 0.625298
76 1 0.625392 0.375751 0.374736
78 1 0.625163 0.374739 0.624943
84 1 0.625398 0.625102 0.375
85 1 0.500191 0.4999 0.50008
86 1 0.625129 0.625019 0.624921
108 1 0.875072 0.374761 0.37511
110 1 0.875087 0.37475 0.625386
116 1 0.874798 0.625094 0.374686
117 1 0.750088 0.500227 0.500153
118 1 0.874545 0.624669 0.625198
28 1 0.125133 0.874434 0.375213
29 1 -0.000477636 0.750031 0.500112
30 1 0.124446 0.874893 0.624818
61 1 0.249605 0.750479 0.5005
60 1 0.37457 0.874955 0.374762
62 1 0.375024 0.875179 0.624862
92 1 0.624934 0.875207 0.374878
93 1 0.49954 0.750144 0.499831
94 1 0.625033 0.874744 0.624538
124 1 0.875011 0.874827 0.375015
125 1 0.749957 0.749996 0.500302
126 1 0.874625 0.875159 0.624976
7 1 -0.000312701 2.30632e-05 0.75019
8 1 0.12524 0.124843 0.875118
15 1 -0.00035514 0.250031 0.750148
39 1 0.250128 -0.000249649 0.74952
47 1 0.249588 0.249482 0.750015
40 1 0.375229 0.124927 0.875086
71 1 0.500064 -1.48847e-05 0.749943
72 1 0.625144 0.124125 0.875139
79 1 0.499628 0.249864 0.749919
103 1 0.750083 9.81498e-06 0.750544
104 1 0.875458 0.125099 0.874395
111 1 0.74972 0.250077 0.75017
16 1 0.124267 0.374983 0.874829
23 1 0.000343567 0.500378 0.74997
24 1 0.125156 0.624805 0.875119
55 1 0.250075 0.500075 0.750018
48 1 0.375177 0.374928 0.87514
56 1 0.375052 0.625078 0.875211
80 1 0.625331 0.374801 0.874594
87 1 0.499796 0.499972 0.750378
88 1 0.625266 0.625064 0.874645
112 1 0.875236 0.375271 0.874972
119 1 0.749778 0.500594 0.750254
120 1 0.874592 0.624524 0.874885
31 1 -0.000121055 0.749889 0.749964
32 1 0.125154 0.875072 0.875068
63 1 0.249805 0.749896 0.750049
64 1 0.375203 0.87504 0.875181
95 1 0.499928 0.750134 0.749781
96 1 0.62512 0.874846 0.875343
127 1 0.750223 0.750176 0.750115
128 1 0.875072 0.874982 0.87508
ITEM: TIMESTEP
7000
ITEM: NUMBER OF ATOMS
128
ITEM: BOX BOUNDS pp pp pp
-6.52135 6.52135
-6.52135 6.52135
-6.52135 6.52135
ITEM: ATOMS id type xs ys zs
1 1 0.000259879 0.000425305 -0.000180688
2 1 0.124794 0.12526 0.125069
3 1 -1.28528e-05 6.99011e-05 0.24992
9 1 4.56034e-05 0.250429 5.14329e-05
11 1 -0.000278956 0.250314 0.250326
33 1 0.249957 0.000372916 -0.000201588
35 1 0.250306 -2.35548e-05 0.249752
41 1 0.250366 0.249902 -0.000243599
43 1 0.249953 0.24981 0.25003
34 1 0.374823 0.124661 0.125017
65 1 0.499846 0.000126524 -0.000545982
66 1 0.625031 0.125217 0.125313
67 1 0.500487 -1.14116e-05 0.250243
73 1 0.5001 0.249755 0.000229594
75 1 0.49996 0.249878 0.249789
97 1 0.749826 -0.000392655 9.88643e-06
98 1 0.875277 0.125102 0.125045
99 1 0.750217 0.000214826 0.250262
105 1 0.749933 0.249772 -7.74845e-05
107 1 0.749674 0.250513 0.249521
10 1 0.124948 0.374974 0.125047